HEADER
"PSFversion" "1.00"
"simulator" "spectre"
"version" "20.1.0.404.isr13"
"date" "5:57:51 PM, Mon May 9, 2022"
"design" "// Generated for: spectre"
"analysis type" "tran"
"analysis name" "tran"
"analysis description" "Transient Analysis `tran': time = (0 s -> 10 us)"
"xVecSorted" "ascending"
"tolerance.relative" 0.00100000
"start" 0.00000
"outputstart" 0.00000
"stop" 1.00000e-05
"step" 1.00000e-08
"istep" 0.00100000
"maxstep" 2.00000e-07
"ic" "all"
"useprevic" "no"
"skipdc" "no"
"reltol" 0.00100000
"abstol(V)" 1.00000e-06
"abstol(I)" 1.00000e-12
"temp" 27.0000
"tnom" 27.0000
"tempeffects" "all"
"errpreset" "moderate"
"method" "traponly"
"lteratio" 3.50000
"relref" "sigglobal"
"cmin" 0.00000
"gmin" 1.00000e-12
TYPE
"sweep" FLOAT DOUBLE PROP(
"key" "sweep"
)
"LogicV" FLOAT DOUBLE PROP(
"key" "node"
)
"Real" FLOAT DOUBLE PROP(
"units" ""
"key" "node"
"tolerance" 1.00000e-06
)
"Tau" FLOAT DOUBLE PROP(
"units" "N*m"
"key" "node"
"tolerance" 1.00000e-06
)
"Alpha" FLOAT DOUBLE PROP(
"units" "rads/s^2"
"key" "node"
"tolerance" 1.00000e-06
)
"Omega" FLOAT DOUBLE PROP(
"units" "rads/s"
"key" "node"
"tolerance" 1.00000e-06
)
"Theta" FLOAT DOUBLE PROP(
"units" "rads"
"key" "node"
"tolerance" 1.00000e-06
)
"F" FLOAT DOUBLE PROP(
"units" "N"
"key" "node"
"tolerance" 1.00000e-06
)
"Imp" FLOAT DOUBLE PROP(
"units" "m/s^3"
"key" "node"
"tolerance" 1.00000e-06
)
"Acc" FLOAT DOUBLE PROP(
"units" "m/s^2"
"key" "node"
"tolerance" 1.00000e-06
)
"Vel" FLOAT DOUBLE PROP(
"units" "m/s"
"key" "node"
"tolerance" 1.00000e-06
)
"Pos" FLOAT DOUBLE PROP(
"units" "m"
"key" "node"
"tolerance" 1.00000e-06
)
"Phi" FLOAT DOUBLE PROP(
"units" "Wb"
"key" "node"
"tolerance" 1.00000e-09
)
"V" FLOAT DOUBLE PROP(
"units" "V"
"key" "node"
"tolerance" 1.00000e-06
)
"I" FLOAT DOUBLE PROP(
"units" "A"
"key" "branch"
"tolerance" 1.00000e-12
)
"MMF" FLOAT DOUBLE PROP(
"units" "A*turn"
"key" "node"
"tolerance" 1.00000e-12
)
"Wb" FLOAT DOUBLE PROP(
"units" "Wb"
"key" "node"
"tolerance" 1.00000e-09
)
"Temp" FLOAT DOUBLE PROP(
"units" "C"
"key" "node"
"tolerance" 0.000100000
)
"Pwr" FLOAT DOUBLE PROP(
"units" "W"
"key" "node"
"tolerance" 1.00000e-09
)
"U" FLOAT DOUBLE PROP(
"units" ""
"key" "node"
"tolerance" 1.00000e-06
)
"V/Sec" FLOAT DOUBLE PROP(
"units" "V/s"
"key" "node"
"tolerance" 0.000100000
)
"I/Sec" FLOAT DOUBLE PROP(
"units" "A/s"
"key" "node"
"tolerance" 1.00000e-06
)
"1/Sec" FLOAT DOUBLE PROP(
"units" "1/s"
"key" "node"
"tolerance" 0.000100000
)
"HOD" FLOAT DOUBLE PROP(
"units" ""
"key" "node"
"tolerance" 0.0100000
)
"Q" FLOAT DOUBLE PROP(
"units" "coul"
"key" "node"
"tolerance" 1.00000e-14
)
SWEEP
"time" "sweep" PROP(
"sweep_direction" 0
"units" "s"
"plot" 0
"grid" 1
)
TRACE
"VD:p" "I" PROP(
"units" "A"
)
"net1" "V"
"net_vg" "V"
"net_vs" "V"
"net_vd" "V"
"VG:p" "I"
"VS:p" "I"
VALUE
"time" 0.000000000000000e+00
"VD:p" 0.000000000000000e+00
"net1" 0.000000000000000e+00
"net_vg" 1.500000000000000e+00
"net_vs" 0.000000000000000e+00
"net_vd" 0.000000000000000e+00
"VG:p" 0.000000000000000e+00
"VS:p" 0.000000000000000e+00
"time" 1.000000000000000e-09
"VD:p" -7.428170914100899e-07
"net1" 1.732966125170161e-05
"net_vg" 1.500000000000000e+00
"net_vs" 0.000000000000000e+00
"net_vd" 7.500000000000001e-03
"VG:p" 1.969096360705778e-09
"VS:p" 7.384749500206819e-07
"time" 2.000000000000000e-09
"VD:p" -1.485847253354358e-06
"net1" 3.477884670550074e-05
"net_vg" 1.500000000000000e+00
"net_vs" 0.000000000000000e+00
"net_vd" 1.500000000000000e-02
"VG:p" 1.982673396088832e-09
"VS:p" 1.481475202199297e-06
"time" 3.000000000000000e-09
"VD:p" -2.229326210460290e-06
"net1" 5.223946996185299e-05
"net_vg" 1.500000000000000e+00
"net_vs" 0.000000000000000e+00
"net_vd" 2.250000000000000e-02
"VG:p" 1.985257764487251e-09
"VS:p" 2.224948498438847e-06
"time" 4.000000000000000e-09
"VD:p" -2.973478599614731e-06
"net1" 6.971650516342229e-05
"net_vg" 1.500000000000000e+00
"net_vs" 0.000000000000000e+00
"net_vd" 3.000000000000000e-02
"VG:p" 1.986388044506964e-09
"VS:p" 2.969098395291776e-06
"time" 5.000000000000000e-09
"VD:p" -3.718529249352252e-06
"net1" 8.721500076571176e-05
"net_vg" 1.500000000000000e+00
"net_vs" 0.000000000000000e+00
"net_vd" 3.750000000000000e-02
"VG:p" 1.990119593012995e-09
"VS:p" 3.714140854619744e-06
"time" 6.000000000000000e-09
"VD:p" -4.464703207969628e-06
"net1" 1.047404718754705e-04
"net_vg" 1.500000000000000e+00
"net_vs" 0.000000000000000e+00
"net_vd" 4.499999999999999e-02
"VG:p" 1.992503138986461e-09
"VS:p" 4.460309557520222e-06
"time" 7.000000000000000e-09
"VD:p" -5.212225900466558e-06
"net1" 1.222979941440272e-04
"net_vg" 1.500000000000000e+00
"net_vs" 0.000000000000000e+00
"net_vd" 5.249999999999999e-02
"VG:p" 1.997388013454800e-09
"VS:p" 5.207821516605855e-06
"time" 8.000000000000000e-09
"VD:p" -5.961323107008180e-06
"net1" 1.398930894459080e-04
"net_vg" 1.500000000000000e+00
"net_vs" 0.000000000000000e+00
"net_vd" 6.000000000000000e-02
"VG:p" 2.001026324418845e-09
"VS:p" 5.956910700802548e-06
"time" 9.000000000000001e-09
"VD:p" -6.712221115712835e-06
"net1" 1.575308663037702e-04
"net_vg" 1.500000000000000e+00
"net_vs" 0.000000000000000e+00
"net_vd" 6.750000000000000e-02
"VG:p" 2.007071959328768e-09
"VS:p" 6.707795416793699e-06
"time" 1.000000000000000e-08
"VD:p" -7.465146705541026e-06
"net1" 1.752168602447373e-04
"net_vg" 1.500000000000000e+00
"net_vs" 0.000000000000000e+00
"net_vd" 7.500000000000000e-02
"VG:p" 2.011968098760526e-09
"VS:p" 7.460710210988523e-06
"time" 1.100000000000000e-08
"VD:p" -8.220327295307685e-06
"net1" 1.929562183884949e-04
"net_vg" 1.500000000000000e+00
"net_vs" 0.000000000000000e+00
"net_vd" 8.250000000000000e-02
"VG:p" 2.019183229450527e-09
"VS:p" 8.215874929572784e-06
"time" 1.200000000000000e-08
"VD:p" -8.977990930775470e-06
"net1" 2.107544968007107e-04
"net_vg" 1.500000000000000e+00
"net_vs" 0.000000000000000e+00
"net_vd" 9.000000000000002e-02
"VG:p" 2.025341825116345e-09
"VS:p" 8.973524986011879e-06
"time" 1.300000000000000e-08
"VD:p" -9.738366430245942e-06
"net1" 2.286168869859705e-04
"net_vg" 1.500000000000000e+00
"net_vs" 0.000000000000000e+00
"net_vd" 9.750000000000002e-02
"VG:p" 2.033736500768596e-09
"VS:p" 9.733882013767856e-06
"time" 1.400000000000000e-08
"VD:p" -1.050168337565819e-05
"net1" 2.465489724460879e-04
"net_vg" 1.500000000000000e+00
"net_vs" 0.000000000000000e+00
"net_vd" 1.050000000000000e-01
"VG:p" 2.041163747648414e-09
"VS:p" 1.049718258319520e-05
"time" 1.500000000000001e-08
"VD:p" -1.126817225509151e-05
"net1" 2.645559949283174e-04
"net_vg" 1.500000000000000e+00
"net_vs" 0.000000000000000e+00
"net_vd" 1.125000000000000e-01
"VG:p" 2.050749347781131e-09
"VS:p" 1.126365036538921e-05
"time" 1.600000000000000e-08
"VD:p" -1.203806445769228e-05
"net1" 2.826435722835955e-04
"net_vg" 1.500000000000000e+00
"net_vs" 0.000000000000000e+00
"net_vd" 1.200000000000000e-01
"VG:p" 2.059453009544134e-09
"VS:p" 1.203352337803111e-05
"time" 1.700000000000000e-08
"VD:p" -1.281159241339959e-05
"net1" 3.008170024370308e-04
"net_vg" 1.500000000000000e+00
"net_vs" 0.000000000000000e+00
"net_vd" 1.275000000000000e-01
"VG:p" 2.070242261571173e-09
"VS:p" 1.280702758301161e-05
"time" 1.800000000000000e-08
"VD:p" -1.358898959154394e-05
"net1" 3.190819445280298e-04
"net_vg" 1.500000000000000e+00
"net_vs" 0.000000000000000e+00
"net_vd" 1.350000000000000e-01
"VG:p" 2.080231677871067e-09
"VS:p" 1.358440273673321e-05
"time" 1.900000000000000e-08
"VD:p" -1.437049063808851e-05
"net1" 3.374437586747846e-04
"net_vg" 1.500000000000000e+00
"net_vs" 0.000000000000000e+00
"net_vd" 1.425000000000000e-01
"VG:p" 2.092238673847949e-09
"VS:p" 1.436587734809519e-05
"time" 2.000000000000000e-08
"VD:p" -1.515633137776172e-05
"net1" 3.559081522789963e-04
"net_vg" 1.500000000000000e+00
"net_vs" 0.000000000000000e+00
"net_vd" 1.500000000000000e-01
"VG:p" 2.103524769158547e-09
"VS:p" 1.515169320490259e-05
"time" 2.100000000000000e-08
"VD:p" -1.594674894908957e-05
"net1" 3.744805537539268e-04
"net_vg" 1.500000000000000e+00
"net_vs" 0.000000000000000e+00
"net_vd" 1.575000000000000e-01
"VG:p" 2.116764986606229e-09
"VS:p" 1.594208162257339e-05
"time" 2.200000000000000e-08
"VD:p" -1.674198180994113e-05
"net1" 3.931667257815154e-04
"net_vg" 1.500000000000000e+00
"net_vs" 0.000000000000000e+00
"net_vd" 1.650000000000000e-01
"VG:p" 2.129360276634001e-09
"VS:p" 1.673728671462963e-05
"time" 2.300000000000000e-08
"VD:p" -1.754226987061212e-05
"net1" 4.119721712642235e-04
"net_vg" 1.500000000000000e+00
"net_vs" 0.000000000000000e+00
"net_vd" 1.725000000000000e-01
"VG:p" 2.143850598713399e-09
"VS:p" 1.753754286605529e-05
"time" 2.400000000000000e-08
"VD:p" -1.834785450267781e-05
"net1" 4.309027152324279e-04
"net_vg" 1.500000000000000e+00
"net_vs" 0.000000000000000e+00
"net_vd" 1.799999999999999e-01
"VG:p" 2.157769204554517e-09
"VS:p" 1.834309681237622e-05
"time" 2.500000000000000e-08
"VD:p" -1.915897867037364e-05
"net1" 4.499639413718297e-04
"net_vg" 1.500000000000000e+00
"net_vs" 0.000000000000000e+00
"net_vd" 1.874999999999999e-01
"VG:p" 2.173527942661938e-09
"VS:p" 1.915418627498006e-05
"time" 2.599999999999999e-08
"VD:p" -1.997588694266484e-05
"net1" 4.691617441889030e-04
"net_vg" 1.500000000000000e+00
"net_vs" 0.000000000000000e+00
"net_vd" 1.950000000000000e-01
"VG:p" 2.188785603381260e-09
"VS:p" 1.997106090999518e-05
"time" 2.699999999999999e-08
"VD:p" -2.079882562315645e-05
"net1" 4.885017945518482e-04
"net_vg" 1.500000000000000e+00
"net_vs" 0.000000000000000e+00
"net_vd" 2.024999999999999e-01
"VG:p" 2.205832520331971e-09
"VS:p" 2.079396204609493e-05
"time" 2.799999999999999e-08
"VD:p" -2.162804276530273e-05
"net1" 5.079900636385490e-04
"net_vg" 1.500000000000000e+00
"net_vs" 0.000000000000000e+00
"net_vd" 2.099999999999999e-01
"VG:p" 2.222446607496250e-09
"VS:p" 2.162314256125695e-05
"time" 2.899999999999999e-08
"VD:p" -2.246378830106692e-05
"net1" 5.276323160100019e-04
"net_vg" 1.500000000000000e+00
"net_vs" 0.000000000000000e+00
"net_vd" 2.174999999999999e-01
"VG:p" 2.240802943439016e-09
"VS:p" 2.245884766662548e-05
"time" 2.999999999999999e-08
"VD:p" -2.330631405920550e-05
"net1" 5.474346067888071e-04
"net_vg" 1.500000000000000e+00
"net_vs" 0.000000000000000e+00
"net_vd" 2.249999999999999e-01
"VG:p" 2.258792478407847e-09
"VS:p" 2.330133376626362e-05
"time" 3.099999999999999e-08
"VD:p" -2.415587389288777e-05
"net1" 5.674028008556632e-04
"net_vg" 1.500000000000000e+00
"net_vs" 0.000000000000000e+00
"net_vd" 2.324999999999999e-01
"VG:p" 2.278480976519651e-09
"VS:p" 2.415085023353392e-05
"time" 3.200000000000000e-08
"VD:p" -2.501272370100118e-05
"net1" 5.875430446354169e-04
"net_vg" 1.500000000000000e+00
"net_vs" 0.000000000000000e+00
"net_vd" 2.399999999999999e-01
"VG:p" 2.297866650545472e-09
"VS:p" 2.500765730614828e-05
"time" 3.300000000000000e-08
"VD:p" -2.587712155493066e-05
"net1" 6.078613100811974e-04
"net_vg" 1.500000000000000e+00
"net_vs" 0.000000000000000e+00
"net_vd" 2.475000000000000e-01
"VG:p" 2.318911585573490e-09
"VS:p" 2.587200880426902e-05
"time" 3.400000000000000e-08
"VD:p" -2.674932772284204e-05
"net1" 6.283638423716329e-04
"net_vg" 1.500000000000000e+00
"net_vs" 0.000000000000000e+00
"net_vd" 2.550000000000000e-01
"VG:p" 2.339715779120691e-09
"VS:p" 2.674416911048194e-05
"time" 3.500000000000000e-08
"VD:p" -2.762960479581227e-05
"net1" 6.490567274148169e-04
"net_vg" 1.500000000000000e+00
"net_vs" 0.000000000000000e+00
"net_vd" 2.625000000000000e-01
"VG:p" 2.362142986963361e-09
"VS:p" 2.762439678143194e-05
"time" 3.600000000000000e-08
"VD:p" -2.851821771505742e-05
"net1" 6.699463166964492e-04
"net_vg" 1.500000000000000e+00
"net_vs" 0.000000000000000e+00
"net_vd" 2.700000000000000e-01
"VG:p" 2.384389793441322e-09
"VS:p" 2.851296065980961e-05
"time" 3.700000000000001e-08
"VD:p" -2.941543389759652e-05
"net1" 6.910388171014578e-04
"net_vg" 1.500000000000000e+00
"net_vs" 0.000000000000000e+00
"net_vd" 2.775000000000000e-01
"VG:p" 2.408226702344356e-09
"VS:p" 2.941012433380060e-05
"time" 3.800000000000001e-08
"VD:p" -3.032152326640003e-05
"net1" 7.123406940867170e-04
"net_vg" 1.500000000000000e+00
"net_vs" 0.000000000000000e+00
"net_vd" 2.850000000000000e-01
"VG:p" 2.431941954237919e-09
"VS:p" 3.031616142577462e-05
"time" 3.900000000000001e-08
"VD:p" -3.123675837576274e-05
"net1" 7.338582826796298e-04
"net_vg" 1.500000000000000e+00
"net_vs" 0.000000000000000e+00
"net_vd" 2.925000000000000e-01
"VG:p" 2.457217614858962e-09
"VS:p" 3.123134085617398e-05
"time" 4.000000000000001e-08
"VD:p" -3.216141444435646e-05
"net1" 7.555981700923317e-04
"net_vg" 1.500000000000000e+00
"net_vs" 0.000000000000000e+00
"net_vd" 3.000000000000001e-01
"VG:p" 2.482428909525252e-09
"VS:p" 3.215594135130181e-05
"time" 4.100000000000002e-08
"VD:p" -3.309576948048084e-05
"net1" 7.775668268131194e-04
"net_vg" 1.500000000000000e+00
"net_vs" 0.000000000000000e+00
"net_vd" 3.075000000000001e-01
"VG:p" 2.509174032735276e-09
"VS:p" 3.309023747051231e-05
"time" 4.200000000000002e-08
"VD:p" -3.404010431801186e-05
"net1" 7.997709697214617e-04
"net_vg" 1.500000000000000e+00
"net_vs" 0.000000000000000e+00
"net_vd" 3.150000000000001e-01
"VG:p" 2.535910760472279e-09
"VS:p" 3.403451337332265e-05
"time" 4.300000000000002e-08
"VD:p" -3.499470274169337e-05
"net1" 8.222172122443330e-04
"net_vg" 1.500000000000000e+00
"net_vs" 0.000000000000000e+00
"net_vd" 3.225000000000001e-01
"VG:p" 2.564157752161696e-09
"VS:p" 3.498904957087912e-05
"time" 4.400000000000002e-08
"VD:p" -3.595985152597998e-05
"net1" 8.449124089776379e-04
"net_vg" 1.500000000000000e+00
"net_vs" 0.000000000000000e+00
"net_vd" 3.300000000000001e-01
"VG:p" 2.592451127125193e-09
"VS:p" 3.595413599056184e-05
"time" 4.500000000000003e-08
"VD:p" -3.693584056052642e-05
"net1" 8.678633239321006e-04
"net_vg" 1.500000000000000e+00
"net_vs" 0.000000000000000e+00
"net_vd" 3.375000000000002e-01
"VG:p" 2.622234125244600e-09
"VS:p" 3.693005941470415e-05
"time" 4.600000000000003e-08
"VD:p" -3.792296289193039e-05
"net1" 8.910769576146265e-04
"net_vg" 1.500000000000000e+00
"net_vs" 0.000000000000000e+00
"net_vd" 3.450000000000002e-01
"VG:p" 2.652117219824497e-09
"VS:p" 3.791711587890888e-05
"time" 4.700000000000003e-08
"VD:p" -3.892151484957148e-05
"net1" 9.145602324403657e-04
"net_vg" 1.500000000000000e+00
"net_vs" 0.000000000000000e+00
"net_vd" 3.525000000000002e-01
"VG:p" 2.683472132847476e-09
"VS:p" 3.891559876290637e-05
"time" 4.800000000000003e-08
"VD:p" -3.993179609026618e-05
"net1" 9.383203031759093e-04
"net_vg" 1.500000000000000e+00
"net_vs" 0.000000000000000e+00
"net_vd" 3.600000000000002e-01
"VG:p" 2.714979911463835e-09
"VS:p" 3.992581055693760e-05
"time" 4.900000000000004e-08
"VD:p" -4.095410972460296e-05
"net1" 9.623642586444435e-04
"net_vg" 1.500000000000000e+00
"net_vs" 0.000000000000000e+00
"net_vd" 3.675000000000003e-01
"VG:p" 2.747944462103093e-09
"VS:p" 4.094805157144641e-05
"time" 5.000000000000004e-08
"VD:p" -4.198876236452731e-05
"net1" 9.866994163861623e-04
"net_vg" 1.500000000000000e+00
"net_vs" 0.000000000000000e+00
"net_vd" 3.750000000000002e-01
"VG:p" 2.781113816652087e-09
"VS:p" 4.198263110413699e-05
"time" 5.100000000000004e-08
"VD:p" -4.303606425031654e-05
"net1" 1.011333039824117e-03
"net_vg" 1.500000000000000e+00
"net_vs" 0.000000000000000e+00
"net_vd" 3.825000000000002e-01
"VG:p" 2.815727582710701e-09
"VS:p" 4.302985673689401e-05
"time" 5.200000000000004e-08
"VD:p" -4.409632930111676e-05
"net1" 1.036272617959950e-03
"net_vg" 1.500000000000000e+00
"net_vs" 0.000000000000000e+00
"net_vd" 3.900000000000003e-01
"VG:p" 2.850597373562716e-09
"VS:p" 4.409004493446025e-05
"time" 5.300000000000004e-08
"VD:p" -4.516987524269709e-05
"net1" 1.061525597209330e-03
"net_vg" 1.500000000000000e+00
"net_vs" 0.000000000000000e+00
"net_vd" 3.975000000000003e-01
"VG:p" 2.886901832754377e-09
"VS:p" 4.516351089861066e-05
"time" 5.400000000000005e-08
"VD:p" -4.625702366096692e-05
"net1" 1.087099646903652e-03
"net_vg" 1.500000000000000e+00
"net_vs" 0.000000000000000e+00
"net_vd" 4.050000000000004e-01
"VG:p" 2.923512928986726e-09
"VS:p" 4.625057862780527e-05
"time" 5.500000000000005e-08
"VD:p" -4.735810013064470e-05
"net1" 1.113002405050434e-03
"net_vg" 1.500000000000000e+00
"net_vs" 0.000000000000000e+00
"net_vd" 4.125000000000003e-01
"VG:p" 2.961551506524489e-09
"VS:p" 4.735157130018704e-05
"time" 5.600000000000005e-08
"VD:p" -4.847343427178790e-05
"net1" 1.139241730373167e-03
"net_vg" 1.500000000000000e+00
"net_vs" 0.000000000000000e+00
"net_vd" 4.200000000000004e-01
"VG:p" 2.999946828075693e-09
"VS:p" 4.846682082206782e-05
"time" 5.700000000000005e-08
"VD:p" -4.960335987950976e-05
"net1" 1.165825461284622e-03
"net_vg" 1.500000000000000e+00
"net_vs" 0.000000000000000e+00
"net_vd" 4.275000000000004e-01
"VG:p" 3.039764944236537e-09
"VS:p" 4.959665871277930e-05
"time" 5.800000000000006e-08
"VD:p" -5.074821498355770e-05
"net1" 1.192761655164252e-03
"net_vg" 1.500000000000000e+00
"net_vs" 0.000000000000000e+00
"net_vd" 4.350000000000003e-01
"VG:p" 3.079989509236720e-09
"VS:p" 5.074142516842631e-05
"time" 5.900000000000006e-08
"VD:p" -5.190834197920862e-05
"net1" 1.220058359868821e-03
"net_vg" 1.500000000000000e+00
"net_vs" 0.000000000000000e+00
"net_vd" 4.425000000000004e-01
"VG:p" 3.121634629523993e-09
"VS:p" 5.190146042301475e-05
"time" 6.000000000000006e-08
"VD:p" -5.308408768993607e-05
"net1" 1.247723840907342e-03
"net_vg" 1.500000000000000e+00
"net_vs" 0.000000000000000e+00
"net_vd" 4.500000000000004e-01
"VG:p" 3.163735599379868e-09
"VS:p" 5.307711335254604e-05
"time" 6.100000000000006e-08
"VD:p" -5.427580349961135e-05
"net1" 1.275766364852832e-03
"net_vg" 1.500000000000000e+00
"net_vs" 0.000000000000000e+00
"net_vd" 4.575000000000004e-01
"VG:p" 3.207257287752763e-09
"VS:p" 5.426873328816473e-05
"time" 6.200000000000005e-08
"VD:p" -5.548384541830383e-05
"net1" 1.304194415038681e-03
"net_vg" 1.500000000000000e+00
"net_vs" 0.000000000000000e+00
"net_vd" 4.650000000000004e-01
"VG:p" 3.251284017876843e-09
"VS:p" 5.547667818439479e-05
"time" 6.300000000000005e-08
"VD:p" -5.670857421591240e-05
"net1" 1.333016486268475e-03
"net_vg" 1.500000000000000e+00
"net_vs" 0.000000000000000e+00
"net_vd" 4.725000000000003e-01
"VG:p" 3.296733990832828e-09
"VS:p" 5.670130686128823e-05
"time" 6.400000000000004e-08
"VD:p" -5.795035549114699e-05
"net1" 1.362241289625826e-03
"net_vg" 1.500000000000000e+00
"net_vs" 0.000000000000000e+00
"net_vd" 4.800000000000003e-01
"VG:p" 3.342738082433655e-09
"VS:p" 5.794298675939630e-05
"time" 6.500000000000004e-08
"VD:p" -5.920955980671276e-05
"net1" 1.391877557909598e-03
"net_vg" 1.500000000000000e+00
"net_vs" 0.000000000000000e+00
"net_vd" 4.875000000000003e-01
"VG:p" 3.390170264832830e-09
"VS:p" 5.920208658908081e-05
"time" 6.600000000000004e-08
"VD:p" -6.048656276152342e-05
"net1" 1.421934240120678e-03
"net_vg" 1.500000000000000e+00
"net_vs" 0.000000000000000e+00
"net_vd" 4.950000000000002e-01
"VG:p" 3.438205618676703e-09
"VS:p" 6.047898369365823e-05
"time" 6.700000000000003e-08
"VD:p" -6.178174512755895e-05
"net1" 1.452420317078937e-03
"net_vg" 1.500000000000000e+00
"net_vs" 0.000000000000000e+00
"net_vd" 5.025000000000002e-01
"VG:p" 3.487676202390453e-09
"VS:p" 6.177405708516679e-05
"time" 6.800000000000003e-08
"VD:p" -6.309549292536420e-05
"net1" 1.483344986120749e-03
"net_vg" 1.500000000000000e+00
"net_vs" 0.000000000000000e+00
"net_vd" 5.100000000000001e-01
"VG:p" 3.537799075459267e-09
"VS:p" 6.308769443602390e-05
"time" 6.900000000000002e-08
"VD:p" -6.442819756269900e-05
"net1" 1.514717486381506e-03
"net_vg" 1.500000000000000e+00
"net_vs" 0.000000000000000e+00
"net_vd" 5.175000000000001e-01
"VG:p" 3.589366579479863e-09
"VS:p" 6.442028548160402e-05
"time" 7.000000000000002e-08
"VD:p" -6.578025591337755e-05
"net1" 1.546547274214352e-03
"net_vg" 1.500000000000000e+00
"net_vs" 0.000000000000000e+00
"net_vd" 5.250000000000001e-01
"VG:p" 3.641635644134045e-09
"VS:p" 6.577222865971721e-05
"time" 7.100000000000001e-08
"VD:p" -6.715207045782844e-05
"net1" 1.578843857644070e-03
"net_vg" 1.500000000000000e+00
"net_vs" 0.000000000000000e+00
"net_vd" 5.325000000000001e-01
"VG:p" 3.695360977805492e-09
"VS:p" 6.714392486136511e-05
"time" 7.200000000000001e-08
"VD:p" -6.854404936533276e-05
"net1" 1.611616962992236e-03
"net_vg" 1.500000000000000e+00
"net_vs" 0.000000000000000e+00
"net_vd" 5.400000000000000e-01
"VG:p" 3.749837381540631e-09
"VS:p" 6.853578373635828e-05
"time" 7.300000000000001e-08
"VD:p" -6.995660663660956e-05
"net1" 1.644876378038461e-03
"net_vg" 1.500000000000000e+00
"net_vs" 0.000000000000000e+00
"net_vd" 5.475000000000000e-01
"VG:p" 3.805783909095241e-09
"VS:p" 6.994821777458469e-05
"time" 7.400000000000000e-08
"VD:p" -7.139016218951264e-05
"net1" 1.678632110306930e-03
"net_vg" 1.500000000000000e+00
"net_vs" 0.000000000000000e+00
"net_vd" 5.549999999999999e-01
"VG:p" 3.862531338385558e-09
"VS:p" 7.138164829513956e-05
"time" 7.500000000000000e-08
"VD:p" -7.284514200375546e-05
"net1" 1.712894238495292e-03
"net_vg" 1.500000000000000e+00
"net_vs" 0.000000000000000e+00
"net_vd" 5.624999999999999e-01
"VG:p" 3.920764946227343e-09
"VS:p" 7.283649984135986e-05
"time" 7.599999999999999e-08
"VD:p" -7.432197821012833e-05
"net1" 1.747673062858386e-03
"net_vg" 1.500000000000000e+00
"net_vs" 0.000000000000000e+00
"net_vd" 5.699999999999998e-01
"VG:p" 3.979849691119626e-09
"VS:p" 7.431320586995283e-05
"time" 7.699999999999999e-08
"VD:p" -7.582110923747495e-05
"net1" 1.782978964486528e-03
"net_vg" 1.500000000000000e+00
"net_vs" 0.000000000000000e+00
"net_vd" 5.774999999999999e-01
"VG:p" 4.040438858708860e-09
"VS:p" 7.581220344390374e-05
"time" 7.799999999999998e-08
"VD:p" -7.734297990549371e-05
"net1" 1.818822548196441e-03
"net_vg" 1.500000000000000e+00
"net_vs" 0.000000000000000e+00
"net_vd" 5.849999999999999e-01
"VG:p" 4.101929881336469e-09
"VS:p" 7.733393863726322e-05
"time" 7.899999999999998e-08
"VD:p" -7.888804157407595e-05
"net1" 1.855214509265176e-03
"net_vg" 1.500000000000000e+00
"net_vs" 0.000000000000000e+00
"net_vd" 5.924999999999998e-01
"VG:p" 4.164945750281347e-09
"VS:p" 7.887886151084614e-05
"time" 7.999999999999998e-08
"VD:p" -8.045675223975652e-05
"net1" 1.892165769218822e-03
"net_vg" 1.500000000000000e+00
"net_vs" 0.000000000000000e+00
"net_vd" 5.999999999999998e-01
"VG:p" 4.228914756592047e-09
"VS:p" 8.044743124753573e-05
"time" 8.099999999999997e-08
"VD:p" -8.204957668752284e-05
"net1" 1.929687349645151e-03
"net_vg" 1.500000000000000e+00
"net_vs" 0.000000000000000e+00
"net_vd" 6.074999999999998e-01
"VG:p" 4.294431205309109e-09
"VS:p" 8.204011139647898e-05
"time" 8.199999999999997e-08
"VD:p" -8.366698659097970e-05
"net1" 1.967790501254276e-03
"net_vg" 1.500000000000000e+00
"net_vs" 0.000000000000000e+00
"net_vd" 6.149999999999997e-01
"VG:p" 4.360952717153965e-09
"VS:p" 8.365737475299756e-05
"time" 8.299999999999996e-08
"VD:p" -8.530946066673732e-05
"net1" 2.006486584410121e-03
"net_vg" 1.500000000000000e+00
"net_vs" 0.000000000000000e+00
"net_vd" 6.224999999999996e-01
"VG:p" 4.429046437433749e-09
"VS:p" 8.529969885773219e-05
"time" 8.399999999999996e-08
"VD:p" -8.697748477835676e-05
"net1" 2.045787191818243e-03
"net_vg" 1.500000000000000e+00
"net_vs" 0.000000000000000e+00
"net_vd" 6.299999999999997e-01
"VG:p" 4.498197867266424e-09
"VS:p" 8.696757063452650e-05
"time" 8.499999999999995e-08
"VD:p" -8.867155209342239e-05
"net1" 2.085704035437667e-03
"net_vg" 1.500000000000000e+00
"net_vs" 0.000000000000000e+00
"net_vd" 6.374999999999996e-01
"VG:p" 4.568948444205307e-09
"VS:p" 8.866148213166743e-05
"time" 8.599999999999995e-08
"VD:p" -9.039216319133566e-05
"net1" 2.126249063128844e-03
"net_vg" 1.500000000000000e+00
"net_vs" 0.000000000000000e+00
"net_vd" 6.449999999999996e-01
"VG:p" 4.640810172846241e-09
"VS:p" 9.038193493043560e-05
"time" 8.699999999999995e-08
"VD:p" -9.213982622317551e-05
"net1" 2.167434351628730e-03
"net_vg" 1.500000000000000e+00
"net_vs" 0.000000000000000e+00
"net_vd" 6.524999999999994e-01
"VG:p" 4.714300163354071e-09
"VS:p" 9.212943611624635e-05
"time" 8.799999999999994e-08
"VD:p" -9.391505702340910e-05
"net1" 2.209272217473597e-03
"net_vg" 1.500000000000000e+00
"net_vs" 0.000000000000000e+00
"net_vd" 6.599999999999995e-01
"VG:p" 4.788955623092396e-09
"VS:p" 9.390450246991392e-05
"time" 8.899999999999994e-08
"VD:p" -9.571837927264223e-05
"net1" 2.251775115734984e-03
"net_vg" 1.500000000000000e+00
"net_vs" 0.000000000000000e+00
"net_vd" 6.674999999999995e-01
"VG:p" 4.865270641178268e-09
"VS:p" 9.570765665713018e-05
"time" 8.999999999999993e-08
"VD:p" -9.755032461331533e-05
"net1" 2.294955745519198e-03
"net_vg" 1.500000000000000e+00
"net_vs" 0.000000000000000e+00
"net_vd" 6.749999999999995e-01
"VG:p" 4.942806395561735e-09
"VS:p" 9.753943121386957e-05
"time" 9.099999999999993e-08
"VD:p" -9.941143281544685e-05
"net1" 2.338826954173615e-03
"net_vg" 1.500000000000000e+00
"net_vs" 0.000000000000000e+00
"net_vd" 6.824999999999993e-01
"VG:p" 5.022035197641608e-09
"VS:p" 9.940036494324704e-05
"time" 9.199999999999992e-08
"VD:p" -1.013022518963829e-04
"net1" 2.383401837654016e-03
"net_vg" 1.500000000000000e+00
"net_vs" 0.000000000000000e+00
"net_vd" 6.899999999999994e-01
"VG:p" 5.102541029231357e-09
"VS:p" 1.012910067059038e-04
"time" 9.299999999999992e-08
"VD:p" -1.032233382896355e-04
"net1" 2.428693649924822e-03
"net_vg" 1.500000000000000e+00
"net_vs" 0.000000000000000e+00
"net_vd" 6.974999999999995e-01
"VG:p" 5.184775602942505e-09
"VS:p" 1.032119120138577e-04
"time" 9.399999999999992e-08
"VD:p" -1.051752569687586e-04
"net1" 2.474715898464619e-03
"net_vg" 1.500000000000000e+00
"net_vs" 0.000000000000000e+00
"net_vd" 7.049999999999993e-01
"VG:p" 5.268344600264054e-09
"VS:p" 1.051636466361584e-04
"time" 9.499999999999991e-08
"VD:p" -1.071585816193845e-04
"net1" 2.521482258606958e-03
"net_vg" 1.500000000000000e+00
"net_vs" 0.000000000000000e+00
"net_vd" 7.124999999999992e-01
"VG:p" 5.353680257459297e-09
"VS:p" 1.071467833798780e-04
"time" 9.599999999999991e-08
"VD:p" -1.091738947673042e-04
"net1" 2.569006664438498e-03
"net_vg" 1.500000000000000e+00
"net_vs" 0.000000000000000e+00
"net_vd" 7.199999999999992e-01
"VG:p" 5.440408905091402e-09
"VS:p" 1.091619055208182e-04
"time" 9.699999999999990e-08
"VD:p" -1.112217879538130e-04
"net1" 2.617303227834193e-03
"net_vg" 1.500000000000000e+00
"net_vs" 0.000000000000000e+00
"net_vd" 7.274999999999993e-01
"VG:p" 5.528944373198677e-09
"VS:p" 1.112096037622960e-04
"time" 9.799999999999990e-08
"VD:p" -1.133028618680839e-04
"net1" 2.666386324998494e-03
"net_vg" 1.500000000000000e+00
"net_vs" 0.000000000000000e+00
"net_vd" 7.349999999999992e-01
"VG:p" 5.618932649648715e-09
"VS:p" 1.132904795001945e-04
"time" 9.899999999999989e-08
"VD:p" -1.154177265259489e-04
"net1" 2.716270519958790e-03
"net_vg" 1.500000000000000e+00
"net_vs" 0.000000000000000e+00
"net_vd" 7.424999999999990e-01
"VG:p" 5.710770169001939e-09
"VS:p" 1.154051419507219e-04
"time" 9.999999999999989e-08
"VD:p" -1.175670014066825e-04
"net1" 2.766970646984995e-03
"net_vg" 1.500000000000000e+00
"net_vs" 0.000000000000000e+00
"net_vd" 7.499999999999991e-01
"VG:p" 5.804121641712013e-09
"VS:p" 1.175542112586276e-04
"time" 1.009999999999999e-07
"VD:p" -1.197513156353790e-04
"net1" 2.818501738323210e-03
"net_vg" 1.500000000000000e+00
"net_vs" 0.000000000000000e+00
"net_vd" 7.574999999999992e-01
"VG:p" 5.899367068796012e-09
"VS:p" 1.197383157856141e-04
"time" 1.019999999999999e-07
"VD:p" -1.219713081243122e-04
"net1" 2.870879102715965e-03
"net_vg" 1.500000000000000e+00
"net_vs" 0.000000000000000e+00
"net_vd" 7.649999999999990e-01
"VG:p" 5.996188994823766e-09
"VS:p" 1.219580950701552e-04
"time" 1.029999999999999e-07
"VD:p" -1.242276277591480e-04
"net1" 2.924118257170541e-03
"net_vg" 1.500000000000000e+00
"net_vs" 0.000000000000000e+00
"net_vd" 7.724999999999990e-01
"VG:p" 6.094951906326577e-09
"VS:p" 1.242141972687338e-04
"time" 1.039999999999999e-07
"VD:p" -1.265209335451527e-04
"net1" 2.978235001795566e-03
"net_vg" 1.500000000000000e+00
"net_vs" 0.000000000000000e+00
"net_vd" 7.799999999999990e-01
"VG:p" 6.195355343081708e-09
"VS:p" 1.265072819753931e-04
"time" 1.049999999999999e-07
"VD:p" -1.288518947976264e-04
"net1" 3.033245355413418e-03
"net_vg" 1.500000000000000e+00
"net_vs" 0.000000000000000e+00
"net_vd" 7.874999999999990e-01
"VG:p" 6.297749149367030e-09
"VS:p" 1.288380178085364e-04
"time" 1.059999999999999e-07
"VD:p" -1.312211912934527e-04
"net1" 3.089165626920011e-03
"net_vg" 1.500000000000000e+00
"net_vs" 0.000000000000000e+00
"net_vd" 7.949999999999989e-01
"VG:p" 6.401849069944779e-09
"VS:p" 1.312070850981447e-04
"time" 1.069999999999999e-07
"VD:p" -1.336295134664416e-04
"net1" 3.146012354571628e-03
"net_vg" 1.500000000000000e+00
"net_vs" 0.000000000000000e+00
"net_vd" 8.024999999999988e-01
"VG:p" 6.507991141286697e-09
"VS:p" 1.336151736115804e-04
"time" 1.079999999999999e-07
"VD:p" -1.360775625651429e-04
"net1" 3.203802374074492e-03
"net_vg" 1.500000000000000e+00
"net_vs" 0.000000000000000e+00
"net_vd" 8.099999999999988e-01
"VG:p" 6.615906568075731e-09
"VS:p" 1.360629851164551e-04
"time" 1.089999999999999e-07
"VD:p" -1.385660508543946e-04
"net1" 3.262552761397949e-03
"net_vg" 1.500000000000000e+00
"net_vs" 0.000000000000000e+00
"net_vd" 8.174999999999989e-01
"VG:p" 6.725918380550050e-09
"VS:p" 1.385512312398439e-04
"time" 1.099999999999998e-07
"VD:p" -1.410957017811735e-04
"net1" 3.322280897814446e-03
"net_vg" 1.500000000000000e+00
"net_vs" 0.000000000000000e+00
"net_vd" 8.249999999999987e-01
"VG:p" 6.837772549767360e-09
"VS:p" 1.410806359152798e-04
"time" 1.109999999999998e-07
"VD:p" -1.436672501848437e-04
"net1" 3.383004416127795e-03
"net_vg" 1.500000000000000e+00
"net_vs" 0.000000000000000e+00
"net_vd" 8.324999999999987e-01
"VG:p" 6.951779874169767e-09
"VS:p" 1.436519333713448e-04
"time" 1.119999999999998e-07
"VD:p" -1.462814424744950e-04
"net1" 3.444741262913702e-03
"net_vg" 1.500000000000000e+00
"net_vs" 0.000000000000000e+00
"net_vd" 8.399999999999987e-01
"VG:p" 7.067700454203860e-09
"VS:p" 1.462658704725857e-04
"time" 1.129999999999998e-07
"VD:p" -1.489390368527285e-04
"net1" 3.507509648116006e-03
"net_vg" 1.500000000000000e+00
"net_vs" 0.000000000000000e+00
"net_vd" 8.474999999999987e-01