HEADER
"PSFversion" "1.00"
"pv" ":1v"
"nv" ":2v"
